easyblock = 'PythonPackage'

name = 'PLAMS'
version = '2025.105'

homepage = 'https://www.scm.com/product/plams'
description = """The Python Library for Automating Molecular Simulation (PLAMS) is powerful and flexible Python tool
interfaced to the Amsterdam Modeling Suite engines ADF, BAND, DFTB, MOPAC, ReaxFF, and UFF."""

toolchain = {'name': 'gfbf', 'version': '2025a'}

source_urls = ['https://github.com/SCM-NV/PLAMS/archive/']
sources = ['%(version)s.tar.gz']
checksums = ['2c6dbd5963ba9b900e033a842f15d996256b9eea51db616c678556304788db4d']

dependencies = [
    ('Python', '3.13.1'),
    ('SciPy-bundle', '2025.06'),
    ('dill', '0.4.0'),
]

sanity_check_paths = {
    'files': ['bin/plams'],
    'dirs': ['lib/python%(pyshortver)s/site-packages'],
}

sanity_check_commands = ["plams --help"]

options = {'modulename': 'scm.plams'}

moduleclass = 'chem'
