easyblock = 'PythonPackage'

name = 'PLAMS'
version = '1.5.1'

homepage = 'https://www.scm.com/product/plams'
description = """The Python Library for Automating Molecular Simulation (PLAMS) is powerful and flexible Python tool
interfaced to the Amsterdam Modeling Suite engines ADF, BAND, DFTB, MOPAC, ReaxFF, and UFF."""

toolchain = {'name': 'intel', 'version': '2022a'}

source_urls = ['https://github.com/SCM-NV/PLAMS/archive/']
sources = ['%(version)s.tar.gz']
checksums = ['163cfb7a4e509791961b45d58d3cd42b4761b2ad73f9c210664fc8e3ad78380a']

dependencies = [
    ('Python', '3.10.4'),
    ('SciPy-bundle', '2022.05'),
    ('dill', '0.3.6'),
]

download_dep_fail = True
use_pip = True

sanity_check_paths = {
    'files': ['bin/plams'],
    'dirs': ['lib/python%(pyshortver)s/site-packages'],
}

sanity_check_commands = ["plams --help"]

options = {'modulename': 'scm.plams'}

sanity_pip_check = True

moduleclass = 'chem'
