easyblock = 'CMakeMake'

name = 'DL_POLY4'
version = '4.10.0'

import os

homepage = 'http://www.scd.stfc.ac.uk/SCD/44516.aspx'
description = "DL_POLY is a general purpose classical molecular dynamics (MD) simulation software developed at Daresbury Laboratory by I.T. Todorov and W. Smith."

toolchain = {'name': 'iompi', 'version': '2020a'}

# After having agreed to the license at:
# http://www.scd.stfc.ac.uk/SCD/40526.aspx
# a download link and password were provided through email. 
# The file was downloaded and unzipped using the password and the 
# resulting directory was tarred into dl_poly-4.09.tar.gz.

sources = ['dl_poly_%(version)s.tar.gz']
checksums = ['ff40514e42f6ab9b74572bf305cc1643fcf82a2e185378fffa1c47f42f416948']

builddependencies = [('CMake', '3.6.1')]

dlpoly_libraries= [
   "libdlpoly.a", "libdlpolycore.a", "libdlpolykim.a", "libdlpolylfv.a", 
   "libdlpolyplumed.a", "libdlpolythermo.a", "libdlpolyvv.a", 
]

sanity_check_paths = {
    'files': ['bin/DLPOLY.Z', ['lib64/%s' % x for x in dlpoly_libraries]],
    'dirs': [],
}

if os.environ.get('USER') == 'ebuser':
	group = "soft_dl_poly4"

moduleclass = 'chem'
