easyblock = 'PythonPackage'

name = 'GSD'
version = '3.2.1'

homepage = 'https://gsd.readthedocs.io'
description = """The GSD file format is the native file format for
HOOMD-blue. GSD files store trajectories of the HOOMD-blue system state
in a binary file with efficient random access to frames. GSD allows all
particle and topology properties to vary from one frame to the next. Use
the GSD Python API to specify the initial condition for a HOOMD-blue
simulation or analyze trajectory output with a script. Read a GSD
trajectory with a visualization tool to explore the behavior of the
simulation."""

toolchain = {'name': 'gfbf', 'version': '2023a'}

github_account = 'glotzerlab'
source_urls = [GITHUB_LOWER_RELEASE]
sources = [SOURCELOWER_TAR_GZ]
checksums = ['49a0e16276789b6953ece7e5a678bd22c128f8cc57cb967f4228ff6487770995']

dependencies = [
    ('Python', '3.11.3'),
    ('SciPy-bundle', '2023.07'),
]

use_pip = True
download_dep_fail = True
sanity_pip_check = True

sanity_check_commands = [
    'python -c "import gsd.hoomd"',
]

moduleclass = 'tools'
