##
# This file is an EasyBuild reciPY as per https://github.com/easybuilders/easybuild
#
# Olivier Fisette <olivier.fisette@westgrid.ca>
##

easyblock = 'CMakeMake'

name = 'HOOMD-blue'
version = '3.6.0'

homepage = 'http://glotzerlab.engin.umich.edu/hoomd-blue/'
description = """HOOMD-blue is a general-purpose particle simulation toolkit for both
GPUs and CPUs, with a Python interface."""

toolchain = {'name': 'GCC', 'version': '9.3.0'}
toolchainopts = {'openmp': False}

source_urls = ['https://github.com/glotzerlab/hoomd-blue/releases/download/v%(version)s/']
sources = ['hoomd-v%(version)s.tar.gz']
checksums = ['a7e4ce4c01078da061b84f2f1be65119b2f887a7a34ce5ee4932206cfa12ea2d']

builddependencies = [
    ('CMake', '3.23.1'),
    ('Eigen', '3.4.0'),
    ('python-build-bundle', '2022a'),
    ('tbb', '2020.2')
]

dependencies = [
    ('SciPy-Stack', '2022a')
]

multi_deps = {'Python': ['3.8', '3.9', '3.10']}

configopts  = '-DENABLE_MPI=OFF -DENABLE_CUDA=OFF -DENABLE_TBB=ON -DENABLE_LLVM=OFF '
configopts += '-DCMAKE_INSTALL_PREFIX=%(installdir)s/lib/python%(pyshortver)s/site-packages '

parallel = 8

runtest = ' && ctest'

sanity_check_paths = {
    'dirs': ['lib']
}

modextrapaths = {'EBPYTHONPREFIXES': ''}

modluafooter = """
if convertToCanonical(LmodVersion()) >= convertToCanonical("8.2.9") then
        depends_on(between('python','3.7<','<3.11'))
end
"""

moduleclass = 'phys'
