easyblock = 'CMakeMake'

name = "DL_POLY_4"
version = "5.1.0"

homepage = "https://www.scd.stfc.ac.uk/Pages/DL_POLY.aspx"
description = "DL_POLY is a general purpose classical molecular dynamics (MD) simulation software"

toolchain = {'name': 'foss', 'version': '2023a'}

source_urls = ['https://gitlab.com/ccp5/dl-poly/-/archive/%(version)s/']
sources = ['dl_poly_%(version)s.tar.bz2']
checksums = ['da5364986cd71e047e080753f6ca75135bf19bd5607770b839dea3734c2fdfaa']

builddependencies = [('CMake', '3.26.3')]

sanity_check_paths = {
    'files': ['bin/DLPOLY.Z'],
    'dirs': []
}

sanity_check_commands = ['DLPOLY.Z -h']

moduleclass = 'chem'
