easyblock = 'CMakeMake'
name = "DL_POLY_4"
version = "5.0.0"
homepage = "https://www.scd.stfc.ac.uk/Pages/DL_POLY.aspx"
description = "DL_POLY is a general purpose classical molecular dynamics (MD) simulation software"

toolchain = {'name': 'foss', 'version': '2020b'}

source_urls = ['https://gitlab.com/ccp5/dl-poly/-/archive/%(version)s/']
sources = ['dl_poly_%(version)s.tar.bz2']
checksums = ['603019172ab37115149bee9c043c7d76db9e5fd60c2bdabde0e4cb2f14f09728']
builddependencies = [('CMake', '3.18.4')]

sanity_check_paths = {
    'files': ['bin/DLPOLY.Z'],
    'dirs': []
}

moduleclass = 'chem'
