easyblock = 'CMakeMake'

name = 'DL_POLY4'
version = '4.08'

homepage = 'http://www.scd.stfc.ac.uk/SCD/44516.aspx'
description = "DL_POLY is a general purpose classical molecular dynamics (MD) simulation software developed at Daresbury Laboratory by I.T. Todorov and W. Smith."

toolchain = {'name': 'iompi', 'version': '2016.4'}

#After having agreed to the license at http://www.scd.stfc.ac.uk/SCD/40526.aspx, a download link and password
#were provided through email. The file was downloaded and unzipped using the password and the resulting directory
#was tarred into dl_poly-4.08.tar.gz.
sources = [SOURCE_TAR_GZ]

builddependencies = [('CMake', '3.6.1')]
group = "soft_dl_poly4"

#sanity_check_paths = {
#    'files': [('lib/libglut.a', 'lib64/libglut.a'), ('lib/libglut.%s' % SHLIB_EXT, 'lib64/libglut.%s' % SHLIB_EXT)],
#    'dirs': ['include/GL'],
#}

moduleclass = 'chem'
