easyblock = 'CMakeMake'

name = 'OpenMolcas'
version = '23.06'

homepage = "https://gitlab.com/Molcas/OpenMolcas"
description = "OpenMolcas is a quantum chemistry software package."

toolchain = {'name': 'intel', 'version': '2023a'}
toolchainopts = {'usempi': True}

source_urls = ['https://gitlab.com/Molcas/OpenMolcas/-/archive/v%(version)s/']
sources = ["%(name)s-v%(version)s.tar.gz"]
patches = ['%(name)s-%(version)s_mcpdft_deps.patch']
checksums = [
    # OpenMolcas-v23.06.tar.gz
    ('fe0299ed39af6e84f249f91452c411f9845c9ae4a0ce78641c867dea8056f280',
     'c3c8f31c22e028e1ac3bd8fb405cea83e8a6fcf21f00e71e81a92941cb026415'),
    # OpenMolcas-23.06_mcpdft_deps.patch
    'a798ec6f93a19539aa2211a978da461d4ecd31c5521b9dab6f2a9b1c2fa65f0e',
]

builddependencies = [('CMake', '3.26.3')]

dependencies = [
    ('Python', '3.11.3'),
    ('Python-bundle-PyPI', '2023.06'),
    ('HDF5', '1.14.0'),
    ('GlobalArrays', '5.8.2'),
]

build_shared_libs = True

preconfigopts = 'GAROOT=$EBROOTGLOBALARRAYS'
_copts = [
    '-DLINALG=MKL',
    '-DMKLROOT=$MKLROOT',
    '-DOPENMP=ON',
    '-DTOOLS=ON',
    '-DFDE=ON',
    '-DMPI=ON',
    '-DGA=ON',
]
configopts = ' '.join(_copts)

modextrapaths = {'PATH': ''}
modextravars = {
    'MOLCAS': '%(installdir)s',
    'MOLCAS_DRIVER': '%(installdir)s/pymolcas',
    'MOLCAS_SOURCE': '%(installdir)s',
}

sanity_check_commands = ['cd %(builddir)s/easybuild_obj; ./pymolcas verify']

sanity_check_paths = {
    'files': ['bin/dynamix.exe', 'bin/mpprop.exe', 'lib/libmolcas.%s' % SHLIB_EXT,
              'sbin/help_basis', 'pymolcas'],
    'dirs': ['data/', 'basis_library/'],
}

moduleclass = 'chem'
