# Test-jobs enabled
# Author: J. Sassmannshausen (Imperial College London/UK)

easyblock = 'CMakeMake'

name = 'OpenMolcas'
version = '22.10'

homepage = "https://gitlab.com/Molcas/OpenMolcas"
description = "OpenMolcas is a quantum chemistry software package"

toolchain = {'name': 'intel', 'version': '2022a'}
toolchainopts = {'usempi': True}

source_urls = ['https://gitlab.com/Molcas/OpenMolcas/-/archive/v%(version)s/']
sources = ["OpenMolcas-v%(version)s.tar.gz"]
patches = ['OpenMolcas-21.06_mcpdft_deps.patch']
checksums = [
    'd1d3d6c9bd69486c36f5285a51ac18e75c03540c5b33751855e94abc764d9658',  # OpenMolcas-v22.10.tar.gz
    '708763e060aa0174bbe9c0cc336b509fbf492066465908dd919452836a7a793a',  # OpenMolcas-21.06_mcpdft_deps.patch
]

dependencies = [
    ('GlobalArrays', '5.8.1'),
    ('HDF5', '1.12.2'),
    ('Python', '3.10.4'),
]

builddependencies = [('CMake', '3.24.3')]

preconfigopts = 'GAROOT=$EBROOTGLOBALARRAYS'
configopts = '-DLINALG=MKL -DMKLROOT=$MKLROOT '
configopts += '-DMPI=ON -DOPENMP=ON -DGA=ON '
configopts += '-DBUILD_SHARED_LIBS=ON -DTOOLS=ON -DFDE=ON'

modextrapaths = {'PATH': ''}
modextravars = {
    'MOLCAS': '%(installdir)s',
    'MOLCAS_DRIVER': '%(installdir)s/pymolcas',
    'MOLCAS_SOURCE': '%(installdir)s',
}

sanity_check_commands = ['cd %(builddir)s/easybuild_obj; ./pymolcas verify']

sanity_check_paths = {
    'files': ['bin/dynamix.exe', 'bin/mpprop.exe', 'lib/libmolcas.%s' % SHLIB_EXT,
              'sbin/help_basis', 'pymolcas'],
    'dirs': ['data/', 'basis_library/'],
}

moduleclass = 'chem'
