easyblock = 'CMakeMake'

name = 'OpenMolcas'
version = '21.06'

homepage = "https://gitlab.com/Molcas/OpenMolcas"
description = "OpenMolcas is a quantum chemistry software package"

toolchain = {'name': 'intel', 'version': '2021a'}
toolchainopts = {'usempi': True}

source_urls = ['https://gitlab.com/Molcas/OpenMolcas/-/archive/v%(version)s/']
sources = ["OpenMolcas-v%(version)s.tar.gz"]
patches = ['OpenMolcas-21.06_mcpdft_deps.patch']
checksums = [
    '54cf989c1e0fcb7e8927f0c64fe356b300bf3537e4868356eea47105a8a06e3a',  # OpenMolcas-v21.06.tar.gz
    '708763e060aa0174bbe9c0cc336b509fbf492066465908dd919452836a7a793a',  # OpenMolcas-21.06_mcpdft_deps.patch
]

dependencies = [
    ('GlobalArrays', '5.8'),
    ('HDF5', '1.10.7'),
    ('Python', '3.9.5'),
]

builddependencies = [('CMake', '3.20.1')]

separate_build_dir = True

preconfigopts = 'GAROOT=$EBROOTGLOBALARRAYS'
configopts = '-DLINALG=MKL -DMKLROOT=$MKLROOT '
configopts += '-DMPI=ON -DOPENMP=ON -DGA=ON '
configopts += '-DBUILD_SHARED_LIBS=ON -DTOOLS=ON -DFDE=ON'

modextrapaths = {'PATH': ''}
modextravars = {
    'MOLCAS': '%(installdir)s',
    'MOLCAS_DRIVER': '%(installdir)s/pymolcas',
    'MOLCAS_SOURCE': '%(installdir)s',
}

sanity_check_paths = {
    'files': ['bin/dynamix.exe', 'bin/mpprop.exe', 'lib/libmolcas.%s' % SHLIB_EXT,
              'sbin/help_basis', 'pymolcas'],
    'dirs': ['data/', 'basis_library/'],
}

moduleclass = 'chem'
