easyblock = 'CMakeMake'

name = 'QCMaquis'
version = '3.1.4'

homepage = "https://github.com/qcscine/qcmaquis"
description = """QCMaquis is written in C++ (C++14 standard) and parallelizes the computationally heavy steps of
a DMRG simulation with shared-memory parallelism (OpenMP)."""

toolchain = {'name': 'iomkl', 'version': '2023a'}
toolchainopts = {'openmp': True, 'optarch': False, 'strict': True}

source_urls = ['https://github.com/qcscine/qcmaquis/archive']
sources = [{'download_filename': 'release-%(version)s.tar.gz', 'filename': SOURCE_TAR_GZ}]
checksums = ['98eaa0a057a8f056ebeab8427c8b59efaf2d71667a2d71491b900adbe0d29341']

builddependencies = [('CMake', '3.26.3')]

dependencies = [
    ('HDF5', '1.14.0', '-serial'),
    ('GSL', '2.7'),
    ('Boost', '1.82.0'),
]

start_dir = 'dmrg'

# preprocess fortran sources by -fpp
configopts = '-DBUILD_OPENMOLCAS_INTERFACE=ON -DCMAKE_Fortran_FLAGS="-fpp" -DQCMAQUIS_TESTS=ON'

# fix build of test_wigner
prebuildopts = "sed -i '14i#include <array>' %(start_dir)s/tests/test_wigner.cpp && "

runtest = True

sanity_check_paths = {
    'files': ['bin/dmrgIPI', 'include/maquis_dmrg.h', 'lib/libmaquis_dmrg.so'],
    'dirs': ['include', 'share/qcmaquis'],
}

moduleclass = 'chem'
